VARIABLES = "powerdemand", "mach", "altitude", "efficiency", 
ZONE T = "FCmapR2_Drag", I = 26, J = 4, K = 5 
524.984006	0.240000	-1	0.681301	1.000000	
603.451022	0.240000	-1	0.673576	1.000000	
681.736904	0.240000	-1	0.666293	1.000000	
759.832251	0.240000	-1	0.659316	1.000000	
837.715751	0.240000	-1	0.652571	1.000000	
915.364391	0.240000	-1	0.646000	1.000000	
992.753233	0.240000	-1	0.639559	1.000000	
1069.847687	0.240000	-1	0.633211	1.000000	
1146.629905	0.240000	-1	0.626923	1.000000	
1223.070793	0.240000	-1	0.620669	1.000000	
1299.139519	0.240000	-1	0.614427	1.000000	
1374.803390	0.240000	-1	0.608175	1.000000	
1450.027652	0.240000	-1	0.601893	1.000000	
1524.775203	0.240000	-1	0.595561	1.000000	
1598.999577	0.240000	-1	0.589157	1.000000	
1672.649260	0.240000	-1	0.582656	1.000000	
1745.684174	0.240000	-1	0.576032	1.000000	
1818.050200	0.240000	-1	0.569257	1.000000	
1889.685904	0.240000	-1	0.562295	1.000000	
1960.463443	0.240000	-1	0.555082	1.000000	
2030.335902	0.240000	-1	0.547573	1.000000	
2099.140354	0.240000	-1	0.539670	1.000000	
2166.726671	0.240000	-1	0.531263	1.000000	
2232.793000	0.240000	-1	0.522148	1.000000	
2296.986543	0.240000	-1	0.512055	1.000000	
2358.621660	0.240000	-1	0.500473	1.000000	
525.859985	0.400000	-1	0.683176	1.000000	
604.475502	0.400000	-1	0.675459	1.000000	
682.915984	0.400000	-1	0.668183	1.000000	
761.171648	0.400000	-1	0.661214	1.000000	
839.221700	0.400000	-1	0.654477	1.000000	
917.043673	0.400000	-1	0.647915	1.000000	
994.611285	0.400000	-1	0.641483	1.000000	
1071.894230	0.400000	-1	0.635145	1.000000	
1148.873379	0.400000	-1	0.628868	1.000000	
1225.520225	0.400000	-1	0.622625	1.000000	
1301.804536	0.400000	-1	0.616394	1.000000	
1377.694225	0.400000	-1	0.610154	1.000000	
1453.155161	0.400000	-1	0.603885	1.000000	
1528.150883	0.400000	-1	0.597566	1.000000	
1602.640907	0.400000	-1	0.591177	1.000000	
1676.564780	0.400000	-1	0.584691	1.000000	
1749.887718	0.400000	-1	0.578083	1.000000	
1822.556507	0.400000	-1	0.571325	1.000000	
1894.510766	0.400000	-1	0.564379	1.000000	
1965.633729	0.400000	-1	0.557189	1.000000	
2035.862746	0.400000	-1	0.549700	1.000000	
2105.057354	0.400000	-1	0.541824	1.000000	
2173.049141	0.400000	-1	0.533443	1.000000	
2239.568473	0.400000	-1	0.524366	1.000000	
2304.261529	0.400000	-1	0.514320	1.000000	
2366.462651	0.400000	-1	0.502802	1.000000	
527.475945	0.600000	-1	0.686754	1.000000	
606.365876	0.600000	-1	0.679053	1.000000	
685.092254	0.600000	-1	0.671791	1.000000	
763.644632	0.600000	-1	0.664836	1.000000	
842.003229	0.600000	-1	0.658116	1.000000	
920.146635	0.600000	-1	0.651571	1.000000	
998.046139	0.600000	-1	0.645160	1.000000	
1075.679433	0.600000	-1	0.638841	1.000000	
1153.025073	0.600000	-1	0.632584	1.000000	
1230.055712	0.600000	-1	0.626363	1.000000	
1306.742302	0.600000	-1	0.620155	1.000000	
1383.053959	0.600000	-1	0.613940	1.000000	
1458.957788	0.600000	-1	0.607696	1.000000	
1534.418603	0.600000	-1	0.601404	1.000000	
1609.398549	0.600000	-1	0.595043	1.000000	
1683.846612	0.600000	-1	0.588588	1.000000	
1757.711860	0.600000	-1	0.582012	1.000000	
1830.951597	0.600000	-1	0.575287	1.000000	
1903.507511	0.600000	-1	0.568377	1.000000	
1975.284065	0.600000	-1	0.561230	1.000000	
2046.188700	0.600000	-1	0.553783	1.000000	
2116.123935	0.600000	-1	0.545963	1.000000	
2184.886497	0.600000	-1	0.537634	1.000000	
2252.268562	0.600000	-1	0.528633	1.000000	
2317.914507	0.600000	-1	0.518684	1.000000	
2381.197176	0.600000	-1	0.507295	1.000000	
529.317306	0.780000	-1	0.691045	1.000000	
608.520679	0.780000	-1	0.683365	1.000000	
687.573940	0.780000	-1	0.676120	1.000000	
766.465967	0.780000	-1	0.669184	1.000000	
845.178215	0.780000	-1	0.662484	1.000000	
923.690573	0.780000	-1	0.655962	1.000000	
1001.971678	0.780000	-1	0.649575	1.000000	
1080.008427	0.780000	-1	0.643282	1.000000	
1157.776854	0.780000	-1	0.637051	1.000000	
1235.251060	0.780000	-1	0.630858	1.000000	
1312.403478	0.780000	-1	0.624679	1.000000	
1389.204746	0.780000	-1	0.618495	1.000000	
1465.623525	0.780000	-1	0.612283	1.000000	
1541.626249	0.780000	-1	0.606025	1.000000	
1617.176756	0.780000	-1	0.599700	1.000000	
1692.235791	0.780000	-1	0.593285	1.000000	
1766.741217	0.780000	-1	0.586750	1.000000	
1840.652201	0.780000	-1	0.580068	1.000000	
1913.917062	0.780000	-1	0.573204	1.000000	
1986.465677	0.780000	-1	0.566113	1.000000	
2058.170183	0.780000	-1	0.558721	1.000000	
2128.975677	0.780000	-1	0.550969	1.000000	
2198.663848	0.780000	-1	0.542713	1.000000	
2267.074746	0.780000	-1	0.533811	1.000000	
2333.859765	0.780000	-1	0.523988	1.000000	
2398.438437	0.780000	-1	0.512768	1.000000	
518.975416	0.240000	10000	0.670058	1.000000	
596.424847	0.240000	10000	0.662282	1.000000	
673.652650	0.240000	10000	0.654954	1.000000	
750.651554	0.240000	10000	0.647927	1.000000	
827.396780	0.240000	10000	0.641127	1.000000	
903.861675	0.240000	10000	0.634496	1.000000	
980.017780	0.240000	10000	0.627989	1.000000	
1055.834878	0.240000	10000	0.621570	1.000000	
1131.276550	0.240000	10000	0.615209	1.000000	
1206.314121	0.240000	10000	0.608877	1.000000	
1280.914674	0.240000	10000	0.602551	1.000000	
1355.041297	0.240000	10000	0.596212	1.000000	
1428.652433	0.240000	10000	0.589837	1.000000	
1501.697868	0.240000	10000	0.583406	1.000000	
1574.137611	0.240000	10000	0.576897	1.000000	
1645.922244	0.240000	10000	0.570286	1.000000	
1716.997451	0.240000	10000	0.563548	1.000000	
1787.302573	0.240000	10000	0.556651	1.000000	
1856.727651	0.240000	10000	0.549550	1.000000	
1925.204134	0.240000	10000	0.542198	1.000000	
1992.632365	0.240000	10000	0.534537	1.000000	
2058.802860	0.240000	10000	0.526456	1.000000	
2123.567820	0.240000	10000	0.517849	1.000000	
2186.611130	0.240000	10000	0.508520	1.000000	
2247.417673	0.240000	10000	0.498141	1.000000	
2305.192156	0.240000	10000	0.486174	1.000000	
519.960589	0.400000	10000	0.671921	1.000000	
597.575970	0.400000	10000	0.664152	1.000000	
674.976027	0.400000	10000	0.656830	1.000000	
752.152987	0.400000	10000	0.649809	1.000000	
829.082544	0.400000	10000	0.643016	1.000000	
905.738537	0.400000	10000	0.636393	1.000000	
982.093013	0.400000	10000	0.629894	1.000000	
1058.116148	0.400000	10000	0.623484	1.000000	
1133.770062	0.400000	10000	0.617131	1.000000	
1209.030650	0.400000	10000	0.610809	1.000000	
1283.863481	0.400000	10000	0.604493	1.000000	
1358.232162	0.400000	10000	0.598164	1.000000	
1432.098117	0.400000	10000	0.591800	1.000000	
1505.408870	0.400000	10000	0.585380	1.000000	
1578.124013	0.400000	10000	0.578883	1.000000	
1650.196214	0.400000	10000	0.572285	1.000000	
1721.571850	0.400000	10000	0.565560	1.000000	
1792.191060	0.400000	10000	0.558677	1.000000	
1861.952521	0.400000	10000	0.551592	1.000000	
1930.775202	0.400000	10000	0.544256	1.000000	
1998.576388	0.400000	10000	0.536614	1.000000	
2065.132962	0.400000	10000	0.528553	1.000000	
2130.319844	0.400000	10000	0.519972	1.000000	
2193.804142	0.400000	10000	0.510667	1.000000	
2255.108163	0.400000	10000	0.500325	1.000000	
2313.470268	0.400000	10000	0.488423	1.000000	
521.794733	0.600000	10000	0.675487	1.000000	
599.719602	0.600000	10000	0.667732	1.000000	
677.441173	0.600000	10000	0.660421	1.000000	
754.950764	0.600000	10000	0.653414	1.000000	
832.225005	0.600000	10000	0.646634	1.000000	
909.238711	0.600000	10000	0.640026	1.000000	
985.964928	0.600000	10000	0.633544	1.000000	
1062.370771	0.600000	10000	0.627152	1.000000	
1138.427203	0.600000	10000	0.620817	1.000000	
1214.107280	0.600000	10000	0.614513	1.000000	
1289.377605	0.600000	10000	0.608218	1.000000	
1364.202826	0.600000	10000	0.601909	1.000000	
1438.545429	0.600000	10000	0.595567	1.000000	
1512.362794	0.600000	10000	0.589171	1.000000	
1585.599628	0.600000	10000	0.582698	1.000000	
1658.217356	0.600000	10000	0.576125	1.000000	
1730.163742	0.600000	10000	0.569427	1.000000	
1801.380502	0.600000	10000	0.562572	1.000000	
1871.783128	0.600000	10000	0.555520	1.000000	
1941.266406	0.600000	10000	0.548216	1.000000	
2009.766187	0.600000	10000	0.540610	1.000000	
2077.075999	0.600000	10000	0.532592	1.000000	
2143.071863	0.600000	10000	0.524063	1.000000	
2207.402518	0.600000	10000	0.514809	1.000000	
2269.663226	0.600000	10000	0.504543	1.000000	
2329.107510	0.600000	10000	0.492744	1.000000	
523.912484	0.780000	10000	0.679781	1.000000	
602.195588	0.780000	10000	0.672045	1.000000	
680.289745	0.780000	10000	0.664749	1.000000	
758.185283	0.780000	10000	0.657758	1.000000	
835.860006	0.780000	10000	0.650997	1.000000	
913.289955	0.780000	10000	0.644409	1.000000	
990.449441	0.780000	10000	0.637947	1.000000	
1067.302056	0.780000	10000	0.631578	1.000000	
1143.829280	0.780000	10000	0.625266	1.000000	
1220.000923	0.780000	10000	0.618987	1.000000	
1295.784909	0.780000	10000	0.612717	1.000000	
1371.147229	0.780000	10000	0.606435	1.000000	
1446.051736	0.780000	10000	0.600122	1.000000	
1520.459843	0.780000	10000	0.593756	1.000000	
1594.322258	0.780000	10000	0.587315	1.000000	
1667.587245	0.780000	10000	0.580775	1.000000	
1740.212259	0.780000	10000	0.574111	1.000000	
1812.141023	0.780000	10000	0.567293	1.000000	
1883.309641	0.780000	10000	0.560284	1.000000	
1953.583525	0.780000	10000	0.553023	1.000000	
2022.916939	0.780000	10000	0.545461	1.000000	
2091.136789	0.780000	10000	0.537502	1.000000	
2158.090817	0.780000	10000	0.529036	1.000000	
2223.460073	0.780000	10000	0.519856	1.000000	
2286.878957	0.780000	10000	0.509690	1.000000	
2347.632870	0.780000	10000	0.498026	1.000000	
511.676297	0.240000	20000	0.657757	1.000000	
587.892949	0.240000	20000	0.649939	1.000000	
663.849653	0.240000	20000	0.642559	1.000000	
739.531343	0.240000	20000	0.635482	1.000000	
814.913315	0.240000	20000	0.628626	1.000000	
889.965242	0.240000	20000	0.621935	1.000000	
964.654862	0.240000	20000	0.615363	1.000000	
1038.948057	0.240000	20000	0.608875	1.000000	
1112.808884	0.240000	20000	0.602438	1.000000	
1186.199555	0.240000	20000	0.596026	1.000000	
1259.080351	0.240000	20000	0.589617	1.000000	
1331.409455	0.240000	20000	0.583189	1.000000	
1403.142669	0.240000	20000	0.576720	1.000000	
1474.232994	0.240000	20000	0.570190	1.000000	
1544.630020	0.240000	20000	0.563577	1.000000	
1614.279058	0.240000	20000	0.556857	1.000000	
1683.119928	0.240000	20000	0.550005	1.000000	
1751.064270	0.240000	20000	0.542983	1.000000	
1818.012985	0.240000	20000	0.535750	1.000000	
1883.901145	0.240000	20000	0.528263	1.000000	
1948.552329	0.240000	20000	0.520442	1.000000	
2011.823816	0.240000	20000	0.512203	1.000000	
2073.436454	0.240000	20000	0.503400	1.000000	
2133.079825	0.240000	20000	0.493846	1.000000	
2190.162914	0.240000	20000	0.483204	1.000000	
2243.657031	0.240000	20000	0.470867	1.000000	
512.753917	0.400000	20000	0.659590	1.000000	
589.151629	0.400000	20000	0.651776	1.000000	
665.294139	0.400000	20000	0.644402	1.000000	
741.168013	0.400000	20000	0.637330	1.000000	
816.748207	0.400000	20000	0.630480	1.000000	
892.004809	0.400000	20000	0.623795	1.000000	
966.905980	0.400000	20000	0.617230	1.000000	
1041.418028	0.400000	20000	0.610748	1.000000	
1115.505436	0.400000	20000	0.604319	1.000000	
1189.130841	0.400000	20000	0.597915	1.000000	
1262.254950	0.400000	20000	0.591514	1.000000	
1334.836374	0.400000	20000	0.585094	1.000000	
1406.831353	0.400000	20000	0.578634	1.000000	
1478.193339	0.400000	20000	0.572113	1.000000	
1548.872403	0.400000	20000	0.565510	1.000000	
1618.814382	0.400000	20000	0.558800	1.000000	
1687.959691	0.400000	20000	0.551958	1.000000	
1756.226342	0.400000	20000	0.544949	1.000000	
1823.506006	0.400000	20000	0.537727	1.000000	
1889.739451	0.400000	20000	0.530252	1.000000	
1954.759906	0.400000	20000	0.522446	1.000000	
2018.412460	0.400000	20000	0.514222	1.000000	
2080.438441	0.400000	20000	0.505439	1.000000	
2140.525854	0.400000	20000	0.495909	1.000000	
2198.094743	0.400000	20000	0.485297	1.000000	
2252.136418	0.400000	20000	0.473000	1.000000	
514.779092	0.600000	20000	0.663109	1.000000	
591.517649	0.600000	20000	0.655304	1.000000	
668.010182	0.600000	20000	0.647943	1.000000	
744.246417	0.600000	20000	0.640881	1.000000	
820.200698	0.600000	20000	0.634043	1.000000	
895.843946	0.600000	20000	0.627371	1.000000	
971.145174	0.600000	20000	0.620819	1.000000	
1046.071547	0.600000	20000	0.614351	1.000000	
1120.588409	0.600000	20000	0.607937	1.000000	
1194.658182	0.600000	20000	0.601549	1.000000	
1268.244954	0.600000	20000	0.595165	1.000000	
1341.307109	0.600000	20000	0.588762	1.000000	
1413.800704	0.600000	20000	0.582320	1.000000	
1485.680820	0.600000	20000	0.575818	1.000000	
1556.898494	0.600000	20000	0.569234	1.000000	
1627.400615	0.600000	20000	0.562544	1.000000	
1697.128782	0.600000	20000	0.555723	1.000000	
1766.013591	0.600000	20000	0.548739	1.000000	
1833.928500	0.600000	20000	0.541541	1.000000	
1900.825504	0.600000	20000	0.534091	1.000000	
1966.556897	0.600000	20000	0.526316	1.000000	
2030.943578	0.600000	20000	0.518122	1.000000	
2093.767348	0.600000	20000	0.509379	1.000000	
2154.712934	0.600000	20000	0.499898	1.000000	
2213.222003	0.600000	20000	0.489348	1.000000	
2268.324965	0.600000	20000	0.477135	1.000000	
517.149866	0.780000	20000	0.667367	1.000000	
594.288154	0.780000	20000	0.659575	1.000000	
671.192160	0.780000	20000	0.652229	1.000000	
747.854642	0.780000	20000	0.645182	1.000000	
824.249551	0.780000	20000	0.638359	1.000000	
900.348881	0.780000	20000	0.631703	1.000000	
976.122742	0.780000	20000	0.625169	1.000000	
1051.539411	0.780000	20000	0.618720	1.000000	
1126.562138	0.780000	20000	0.612325	1.000000	
1201.158107	0.780000	20000	0.605958	1.000000	
1275.294102	0.780000	20000	0.599595	1.000000	
1348.931435	0.780000	20000	0.593215	1.000000	
1422.024210	0.780000	20000	0.586796	1.000000	
1494.524257	0.780000	20000	0.580319	1.000000	
1566.387598	0.780000	20000	0.573761	1.000000	
1637.562478	0.780000	20000	0.567098	1.000000	
1707.992010	0.780000	20000	0.560305	1.000000	
1777.612647	0.780000	20000	0.553351	1.000000	
1846.304855	0.780000	20000	0.546187	1.000000	
1914.004894	0.780000	20000	0.538771	1.000000	
1980.598932	0.780000	20000	0.531038	1.000000	
2045.877373	0.780000	20000	0.522884	1.000000	
2109.672860	0.780000	20000	0.514195	1.000000	
2171.665791	0.780000	20000	0.504779	1.000000	
2231.301058	0.780000	20000	0.494301	1.000000	
2287.728447	0.780000	20000	0.482211	1.000000	
502.957016	0.240000	30000	0.644271	1.000000	
577.708595	0.240000	30000	0.636412	1.000000	
652.159840	0.240000	30000	0.628983	1.000000	
726.285231	0.240000	30000	0.621855	1.000000	
800.061347	0.240000	30000	0.614944	1.000000	
873.454248	0.240000	30000	0.608193	1.000000	
946.427943	0.240000	30000	0.601556	1.000000	
1018.944487	0.240000	30000	0.594997	1.000000	
1090.964032	0.240000	30000	0.588486	1.000000	
1162.444810	0.240000	30000	0.581995	1.000000	
1233.343040	0.240000	30000	0.575501	1.000000	
1303.612727	0.240000	30000	0.568983	1.000000	
1373.205342	0.240000	30000	0.562420	1.000000	
1442.069318	0.240000	30000	0.555791	1.000000	
1510.149345	0.240000	30000	0.549074	1.000000	
1577.385357	0.240000	30000	0.542245	1.000000	
1643.711128	0.240000	30000	0.535278	1.000000	
1708.997568	0.240000	30000	0.528131	1.000000	
1773.194571	0.240000	30000	0.520770	1.000000	
1836.201195	0.240000	30000	0.513148	1.000000	
1897.777480	0.240000	30000	0.505173	1.000000	
1957.840638	0.240000	30000	0.496779	1.000000	
2015.990813	0.240000	30000	0.487793	1.000000	
2071.901656	0.240000	30000	0.478028	1.000000	
2124.893658	0.240000	30000	0.467134	1.000000	
2173.773737	0.240000	30000	0.454483	1.000000	
504.099138	0.400000	30000	0.646052	1.000000	
579.041301	0.400000	30000	0.638196	1.000000	
653.687615	0.400000	30000	0.630771	1.000000	
728.014029	0.400000	30000	0.623648	1.000000	
801.996738	0.400000	30000	0.616742	1.000000	
875.602127	0.400000	30000	0.609995	1.000000	
948.794535	0.400000	30000	0.603364	1.000000	
1021.536351	0.400000	30000	0.596810	1.000000	
1093.788059	0.400000	30000	0.590304	1.000000	
1165.508225	0.400000	30000	0.583819	1.000000	
1236.653399	0.400000	30000	0.577332	1.000000	
1307.177926	0.400000	30000	0.570820	1.000000	
1377.033621	0.400000	30000	0.564264	1.000000	
1446.169286	0.400000	30000	0.557642	1.000000	
1514.530006	0.400000	30000	0.550932	1.000000	
1582.056158	0.400000	30000	0.544111	1.000000	
1648.682028	0.400000	30000	0.537152	1.000000	
1714.283934	0.400000	30000	0.530013	1.000000	
1778.804013	0.400000	30000	0.522661	1.000000	
1842.146212	0.400000	30000	0.515048	1.000000	
1904.078778	0.400000	30000	0.507085	1.000000	
1964.512251	0.400000	30000	0.498703	1.000000	
2023.054158	0.400000	30000	0.489729	1.000000	
2079.387300	0.400000	30000	0.479981	1.000000	
2132.838859	0.400000	30000	0.469109	1.000000	
2182.233898	0.400000	30000	0.456487	1.000000	
506.264889	0.600000	30000	0.649483	1.000000	
581.568999	0.600000	30000	0.641634	1.000000	
656.585983	0.600000	30000	0.634219	1.000000	
731.294699	0.600000	30000	0.627104	1.000000	
805.670611	0.600000	30000	0.620207	1.000000	
879.680769	0.600000	30000	0.613470	1.000000	
953.290187	0.600000	30000	0.606849	1.000000	
1026.461929	0.600000	30000	0.600307	1.000000	
1099.157159	0.600000	30000	0.593812	1.000000	
1171.335117	0.600000	30000	0.587340	1.000000	
1242.953030	0.600000	30000	0.580865	1.000000	
1313.965927	0.600000	30000	0.574367	1.000000	
1384.326324	0.600000	30000	0.567825	1.000000	
1453.983757	0.600000	30000	0.561217	1.000000	
1522.884105	0.600000	30000	0.554522	1.000000	
1590.968627	0.600000	30000	0.547716	1.000000	
1658.172621	0.600000	30000	0.540773	1.000000	
1724.383215	0.600000	30000	0.533654	1.000000	
1789.526979	0.600000	30000	0.526319	1.000000	
1853.517603	0.600000	30000	0.518726	1.000000	
1916.139720	0.600000	30000	0.510785	1.000000	
1977.283669	0.600000	30000	0.502425	1.000000	
2036.591743	0.600000	30000	0.493481	1.000000	
2093.744733	0.600000	30000	0.483768	1.000000	
2148.089502	0.600000	30000	0.472941	1.000000	
2198.486721	0.600000	30000	0.460377	1.000000	
508.834539	0.780000	30000	0.653655	1.000000	
584.569070	0.780000	30000	0.645816	1.000000	
660.027228	0.780000	30000	0.638413	1.000000	
735.191515	0.780000	30000	0.631309	1.000000	
810.036550	0.780000	30000	0.624424	1.000000	
884.530251	0.780000	30000	0.617701	1.000000	
958.638517	0.780000	30000	0.611094	1.000000	
1032.325304	0.780000	30000	0.604566	1.000000	
1105.552664	0.780000	30000	0.598087	1.000000	
1178.280725	0.780000	30000	0.591631	1.000000	
1250.467603	0.780000	30000	0.585173	1.000000	
1322.069219	0.780000	30000	0.578693	1.000000	
1393.039005	0.780000	30000	0.572169	1.000000	
1463.327452	0.780000	30000	0.565581	1.000000	
1532.881459	0.780000	30000	0.558906	1.000000	
1601.643411	0.780000	30000	0.552121	1.000000	
1669.549893	0.780000	30000	0.545200	1.000000	
1736.501854	0.780000	30000	0.538105	1.000000	
1802.405877	0.780000	30000	0.530795	1.000000	
1867.188071	0.780000	30000	0.523226	1.000000	
1930.653993	0.780000	30000	0.515317	1.000000	
1992.667857	0.780000	30000	0.506987	1.000000	
2052.916372	0.780000	30000	0.498082	1.000000	
2111.077344	0.780000	30000	0.488417	1.000000	
2166.522215	0.780000	30000	0.477650	1.000000	
2218.156123	0.780000	30000	0.465166	1.000000	
494.838210	0.240000	37500	0.632545	1.000000	
568.230241	0.240000	37500	0.624652	1.000000	
641.285789	0.240000	37500	0.617180	1.000000	
713.971140	0.240000	37500	0.610009	1.000000	
786.263808	0.240000	37500	0.603049	1.000000	
858.126814	0.240000	37500	0.596245	1.000000	
929.521010	0.240000	37500	0.589551	1.000000	
1000.405191	0.240000	37500	0.582929	1.000000	
1070.736161	0.240000	37500	0.576351	1.000000	
1140.468710	0.240000	37500	0.569788	1.000000	
1209.555514	0.240000	37500	0.563218	1.000000	
1277.946903	0.240000	37500	0.556619	1.000000	
1345.590493	0.240000	37500	0.549971	1.000000	
1412.430627	0.240000	37500	0.543252	1.000000	
1478.407563	0.240000	37500	0.536440	1.000000	
1543.456344	0.240000	37500	0.529513	1.000000	
1607.490419	0.240000	37500	0.522439	1.000000	
1670.393760	0.240000	37500	0.515181	1.000000	
1732.105496	0.240000	37500	0.507705	1.000000	
1792.487688	0.240000	37500	0.499957	1.000000	
1851.322999	0.240000	37500	0.491853	1.000000	
1908.466748	0.240000	37500	0.483313	1.000000	
1963.537921	0.240000	37500	0.474178	1.000000	
2016.102707	0.240000	37500	0.464236	1.000000	
2065.432850	0.240000	37500	0.453140	1.000000	
2110.191419	0.240000	37500	0.440244	1.000000	
496.017990	0.400000	37500	0.634288	1.000000	
569.605942	0.400000	37500	0.626397	1.000000	
642.861680	0.400000	37500	0.618929	1.000000	
715.752789	0.400000	37500	0.611761	1.000000	
788.256388	0.400000	37500	0.604806	1.000000	
860.335763	0.400000	37500	0.598006	1.000000	
931.952032	0.400000	37500	0.591315	1.000000	
1003.064262	0.400000	37500	0.584698	1.000000	
1073.629527	0.400000	37500	0.578124	1.000000	
1143.602892	0.400000	37500	0.571566	1.000000	
1212.937308	0.400000	37500	0.565001	1.000000	
1281.583389	0.400000	37500	0.558408	1.000000	
1349.489047	0.400000	37500	0.551765	1.000000	
1416.598940	0.400000	37500	0.545052	1.000000	
1482.853678	0.400000	37500	0.538246	1.000000	
1548.188700	0.400000	37500	0.531324	1.000000	
1612.521220	0.400000	37500	0.524257	1.000000	
1675.729973	0.400000	37500	0.517006	1.000000	
1737.757460	0.400000	37500	0.509537	1.000000	
1798.471121	0.400000	37500	0.501797	1.000000	
1857.647414	0.400000	37500	0.493700	1.000000	
1915.152450	0.400000	37500	0.485171	1.000000	
1970.598576	0.400000	37500	0.476044	1.000000	
2023.568965	0.400000	37500	0.466116	1.000000	
2073.338912	0.400000	37500	0.455036	1.000000	
2118.588323	0.400000	37500	0.442161	1.000000	
498.268861	0.600000	37500	0.637653	1.000000	
572.231099	0.600000	37500	0.629768	1.000000	
645.869454	0.600000	37500	0.622308	1.000000	
719.154106	0.600000	37500	0.615147	1.000000	
792.061418	0.600000	37500	0.608199	1.000000	
864.555214	0.600000	37500	0.601407	1.000000	
936.597160	0.600000	37500	0.594725	1.000000	
1008.146877	0.600000	37500	0.588117	1.000000	
1079.161993	0.600000	37500	0.581552	1.000000	
1149.598130	0.600000	37500	0.575005	1.000000	
1219.408796	0.600000	37500	0.568450	1.000000	
1288.545179	0.600000	37500	0.561868	1.000000	
1356.955785	0.600000	37500	0.555236	1.000000	
1424.585907	0.600000	37500	0.548534	1.000000	
1491.376848	0.600000	37500	0.541741	1.000000	
1557.264836	0.600000	37500	0.534831	1.000000	
1622.174669	0.600000	37500	0.527778	1.000000	
1685.974448	0.600000	37500	0.520541	1.000000	
1748.613450	0.600000	37500	0.513086	1.000000	
1809.969948	0.600000	37500	0.505363	1.000000	
1869.807689	0.600000	37500	0.497282	1.000000	
1928.014554	0.600000	37500	0.488773	1.000000	
1984.189163	0.600000	37500	0.479667	1.000000	
2037.948796	0.600000	37500	0.469765	1.000000	
2088.575376	0.600000	37500	0.458719	1.000000	
2134.781884	0.600000	37500	0.445888	1.000000	
500.964411	0.780000	37500	0.641760	1.000000	
575.375775	0.780000	37500	0.633883	1.000000	
649.473573	0.780000	37500	0.626432	1.000000	
723.231307	0.780000	37500	0.619280	1.000000	
796.624425	0.780000	37500	0.612342	1.000000	
869.617468	0.780000	37500	0.605561	1.000000	
942.172828	0.780000	37500	0.598891	1.000000	
1014.250857	0.780000	37500	0.592295	1.000000	
1085.809915	0.780000	37500	0.585743	1.000000	
1156.806354	0.780000	37500	0.579209	1.000000	
1227.194420	0.780000	37500	0.572668	1.000000	
1296.926045	0.780000	37500	0.566100	1.000000	
1365.950507	0.780000	37500	0.559484	1.000000	
1434.213915	0.780000	37500	0.552798	1.000000	
1501.658462	0.780000	37500	0.546020	1.000000	
1568.221374	0.780000	37500	0.539128	1.000000	
1633.833442	0.780000	37500	0.532093	1.000000	
1698.360356	0.780000	37500	0.524875	1.000000	
1761.748655	0.780000	37500	0.517439	1.000000	
1823.893409	0.780000	37500	0.509739	1.000000	
1884.544702	0.780000	37500	0.501680	1.000000	
1943.615507	0.780000	37500	0.493199	1.000000	
2000.687126	0.780000	37500	0.484119	1.000000	
2055.420819	0.780000	37500	0.474254	1.000000	
2107.106200	0.780000	37500	0.463253	1.000000	
2154.497665	0.780000	37500	0.450483	1.000000	
