VARIABLES = "powerdemand", "mach", "altitude", "heat", 
ZONE T = "FCmapR2_Drag", I = 26, J = 4, K = 5 
524.984006	0.240000	-1	152.744738	1.000000	
603.451022	0.240000	-1	184.519846	1.000000	
681.736904	0.240000	-1	218.223335	1.000000	
759.832251	0.240000	-1	253.731439	1.000000	
837.715751	0.240000	-1	291.053455	1.000000	
915.364391	0.240000	-1	330.206455	1.000000	
992.753233	0.240000	-1	371.216472	1.000000	
1069.847687	0.240000	-1	414.164764	1.000000	
1146.629905	0.240000	-1	459.021434	1.000000	
1223.070793	0.240000	-1	505.831839	1.000000	
1299.139519	0.240000	-1	554.648401	1.000000	
1374.803390	0.240000	-1	605.531482	1.000000	
1450.027652	0.240000	-1	658.550610	1.000000	
1524.775203	0.240000	-1	713.786150	1.000000	
1598.999577	0.240000	-1	771.360107	1.000000	
1672.649260	0.240000	-1	831.414715	1.000000	
1745.684174	0.240000	-1	894.046136	1.000000	
1818.050200	0.240000	-1	959.415599	1.000000	
1889.685904	0.240000	-1	1027.719928	1.000000	
1960.463443	0.240000	-1	1099.425984	1.000000	
2030.335902	0.240000	-1	1174.691938	1.000000	
2099.140354	0.240000	-1	1254.151607	1.000000	
2166.726671	0.240000	-1	1338.414479	1.000000	
2232.793000	0.240000	-1	1428.733785	1.000000	
2296.986543	0.240000	-1	1526.637838	1.000000	
2358.621660	0.240000	-1	1635.123529	1.000000	
525.859985	0.400000	-1	151.756987	1.000000	
604.475502	0.400000	-1	183.369291	1.000000	
682.915984	0.400000	-1	216.899027	1.000000	
761.171648	0.400000	-1	252.230313	1.000000	
839.221700	0.400000	-1	289.372900	1.000000	
917.043673	0.400000	-1	328.344324	1.000000	
994.611285	0.400000	-1	369.184010	1.000000	
1071.894230	0.400000	-1	411.948941	1.000000	
1148.873379	0.400000	-1	456.621509	1.000000	
1225.520225	0.400000	-1	503.247493	1.000000	
1301.804536	0.400000	-1	551.879711	1.000000	
1377.694225	0.400000	-1	602.578884	1.000000	
1453.155161	0.400000	-1	655.414857	1.000000	
1528.150883	0.400000	-1	710.468250	1.000000	
1602.640907	0.400000	-1	767.838428	1.000000	
1676.564780	0.400000	-1	827.711898	1.000000	
1749.887718	0.400000	-1	890.163322	1.000000	
1822.556507	0.400000	-1	955.353728	1.000000	
1894.510766	0.400000	-1	1023.479553	1.000000	
1965.633729	0.400000	-1	1094.972284	1.000000	
2035.862746	0.400000	-1	1170.055443	1.000000	
2105.057354	0.400000	-1	1249.283708	1.000000	
2173.049141	0.400000	-1	1333.349657	1.000000	
2239.568473	0.400000	-1	1423.397420	1.000000	
2304.261529	0.400000	-1	1520.982838	1.000000	
2366.462651	0.400000	-1	1629.070236	1.000000	
527.475945	0.600000	-1	149.790501	1.000000	
606.365876	0.600000	-1	181.078077	1.000000	
685.092254	0.600000	-1	214.260957	1.000000	
763.644632	0.600000	-1	249.238905	1.000000	
842.003229	0.600000	-1	286.022516	1.000000	
920.146635	0.600000	-1	324.630185	1.000000	
998.046139	0.600000	-1	365.128115	1.000000	
1075.679433	0.600000	-1	407.524603	1.000000	
1153.025073	0.600000	-1	451.826599	1.000000	
1230.055712	0.600000	-1	498.080676	1.000000	
1306.742302	0.600000	-1	546.340400	1.000000	
1383.053959	0.600000	-1	596.667180	1.000000	
1458.957788	0.600000	-1	649.131457	1.000000	
1534.418603	0.600000	-1	703.814342	1.000000	
1609.398549	0.600000	-1	760.809820	1.000000	
1683.846612	0.600000	-1	820.272542	1.000000	
1757.711860	0.600000	-1	882.355051	1.000000	
1830.951597	0.600000	-1	947.177519	1.000000	
1903.507511	0.600000	-1	1014.935595	1.000000	
1975.284065	0.600000	-1	1085.988928	1.000000	
2046.188700	0.600000	-1	1160.693648	1.000000	
2116.123935	0.600000	-1	1239.443726	1.000000	
2184.886497	0.600000	-1	1323.100416	1.000000	
2252.268562	0.600000	-1	1412.586048	1.000000	
2317.914507	0.600000	-1	1509.512094	1.000000	
2381.197176	0.600000	-1	1616.776100	1.000000	
529.317306	0.780000	-1	147.292018	1.000000	
608.520679	0.780000	-1	178.165928	1.000000	
687.573940	0.780000	-1	210.906445	1.000000	
766.465967	0.780000	-1	245.433106	1.000000	
845.178215	0.780000	-1	281.757467	1.000000	
923.690573	0.780000	-1	319.898903	1.000000	
1001.971678	0.780000	-1	359.957809	1.000000	
1080.008427	0.780000	-1	401.880022	1.000000	
1157.776854	0.780000	-1	445.703832	1.000000	
1235.251060	0.780000	-1	491.476730	1.000000	
1312.403478	0.780000	-1	539.253153	1.000000	
1389.204746	0.780000	-1	589.095308	1.000000	
1465.623525	0.780000	-1	641.074336	1.000000	
1541.626249	0.780000	-1	695.271914	1.000000	
1617.176756	0.780000	-1	751.782429	1.000000	
1692.235791	0.780000	-1	810.715906	1.000000	
1766.741217	0.780000	-1	872.290710	1.000000	
1840.652201	0.780000	-1	936.624204	1.000000	
1913.917062	0.780000	-1	1003.891749	1.000000	
1986.465677	0.780000	-1	1074.359081	1.000000	
2058.170183	0.780000	-1	1148.555421	1.000000	
2128.975677	0.780000	-1	1226.703227	1.000000	
2198.663848	0.780000	-1	1309.768503	1.000000	
2267.074746	0.780000	-1	1398.498762	1.000000	
2333.859765	0.780000	-1	1494.539133	1.000000	
2398.438437	0.780000	-1	1600.698599	1.000000	
518.975416	0.240000	10000	157.444530	1.000000	
596.424847	0.240000	10000	189.991210	1.000000	
673.652650	0.240000	10000	224.516682	1.000000	
750.651554	0.240000	10000	260.859436	1.000000	
827.396780	0.240000	10000	299.026323	1.000000	
903.861675	0.240000	10000	339.031941	1.000000	
980.017780	0.240000	10000	380.898119	1.000000	
1055.834878	0.240000	10000	424.653603	1.000000	
1131.276550	0.240000	10000	470.355651	1.000000	
1206.314121	0.240000	10000	518.020131	1.000000	
1280.914674	0.240000	10000	567.686892	1.000000	
1355.041297	0.240000	10000	619.414454	1.000000	
1428.652433	0.240000	10000	673.280518	1.000000	
1501.697868	0.240000	10000	729.396130	1.000000	
1574.137611	0.240000	10000	787.832937	1.000000	
1645.922244	0.240000	10000	848.703103	1.000000	
1716.997451	0.240000	10000	912.140737	1.000000	
1787.302573	0.240000	10000	978.308007	1.000000	
1856.727651	0.240000	10000	1047.544884	1.000000	
1925.204134	0.240000	10000	1120.055769	1.000000	
1992.632365	0.240000	10000	1196.167521	1.000000	
2058.802860	0.240000	10000	1276.603663	1.000000	
2123.567820	0.240000	10000	1361.904964	1.000000	
2186.611130	0.240000	10000	1453.236859	1.000000	
2247.417673	0.240000	10000	1552.542470	1.000000	
2305.192156	0.240000	10000	1662.896557	1.000000	
519.960589	0.400000	10000	156.636832	1.000000	
597.575970	0.400000	10000	189.051292	1.000000	
674.976027	0.400000	10000	223.436094	1.000000	
752.152987	0.400000	10000	259.636238	1.000000	
829.082544	0.400000	10000	297.659029	1.000000	
905.738537	0.400000	10000	337.519524	1.000000	
982.093013	0.400000	10000	379.240010	1.000000	
1058.116148	0.400000	10000	422.850314	1.000000	
1133.770062	0.400000	10000	468.418267	1.000000	
1209.030650	0.400000	10000	515.938841	1.000000	
1283.863481	0.400000	10000	565.462782	1.000000	
1358.232162	0.400000	10000	617.048940	1.000000	
1432.098117	0.400000	10000	670.765531	1.000000	
1505.408870	0.400000	10000	726.736495	1.000000	
1578.124013	0.400000	10000	785.036612	1.000000	
1650.196214	0.400000	10000	845.772185	1.000000	
1721.571850	0.400000	10000	909.077281	1.000000	
1792.191060	0.400000	10000	975.113904	1.000000	
1861.952521	0.400000	10000	1044.197162	1.000000	
1930.775202	0.400000	10000	1116.578162	1.000000	
1998.576388	0.400000	10000	1192.528667	1.000000	
2065.132962	0.400000	10000	1272.830392	1.000000	
2130.319844	0.400000	10000	1357.951006	1.000000	
2193.804142	0.400000	10000	1449.131950	1.000000	
2255.108163	0.400000	10000	1548.210078	1.000000	
2313.470268	0.400000	10000	1658.177181	1.000000	
521.794733	0.600000	10000	155.012598	1.000000	
599.719602	0.600000	10000	187.160680	1.000000	
677.441173	0.600000	10000	221.261834	1.000000	
754.950764	0.600000	10000	257.174123	1.000000	
832.225005	0.600000	10000	294.905725	1.000000	
909.238711	0.600000	10000	334.472576	1.000000	
985.964928	0.600000	10000	375.897841	1.000000	
1062.370771	0.600000	10000	419.234852	1.000000	
1138.427203	0.600000	10000	464.508803	1.000000	
1214.107280	0.600000	10000	511.736309	1.000000	
1289.377605	0.600000	10000	560.968834	1.000000	
1364.202826	0.600000	10000	612.265877	1.000000	
1438.545429	0.600000	10000	665.696211	1.000000	
1512.362794	0.600000	10000	721.350299	1.000000	
1585.599628	0.600000	10000	779.369035	1.000000	
1658.217356	0.600000	10000	839.826886	1.000000	
1730.163742	0.600000	10000	902.857835	1.000000	
1801.380502	0.600000	10000	968.623564	1.000000	
1871.783128	0.600000	10000	1037.388295	1.000000	
1941.266406	0.600000	10000	1109.498691	1.000000	
2009.766187	0.600000	10000	1185.165744	1.000000	
2077.075999	0.600000	10000	1265.134349	1.000000	
2143.071863	0.600000	10000	1349.878365	1.000000	
2207.402518	0.600000	10000	1440.742875	1.000000	
2269.663226	0.600000	10000	1539.346789	1.000000	
2329.107510	0.600000	10000	1648.708385	1.000000	
523.912484	0.780000	10000	152.918904	1.000000	
602.195588	0.780000	10000	184.722696	1.000000	
680.289745	0.780000	10000	218.456789	1.000000	
758.185283	0.780000	10000	253.996022	1.000000	
835.860006	0.780000	10000	291.349612	1.000000	
913.289955	0.780000	10000	330.534547	1.000000	
990.449441	0.780000	10000	371.575048	1.000000	
1067.302056	0.780000	10000	414.555003	1.000000	
1143.829280	0.780000	10000	459.443990	1.000000	
1220.000923	0.780000	10000	506.286743	1.000000	
1295.784909	0.780000	10000	555.135613	1.000000	
1371.147229	0.780000	10000	606.050899	1.000000	
1446.051736	0.780000	10000	659.102070	1.000000	
1520.459843	0.780000	10000	714.369446	1.000000	
1594.322258	0.780000	10000	771.979000	1.000000	
1667.587245	0.780000	10000	832.065204	1.000000	
1740.212259	0.780000	10000	894.727990	1.000000	
1812.141023	0.780000	10000	960.128621	1.000000	
1883.309641	0.780000	10000	1028.464015	1.000000	
1953.583525	0.780000	10000	1100.207144	1.000000	
2022.916939	0.780000	10000	1175.504821	1.000000	
2091.136789	0.780000	10000	1255.004681	1.000000	
2158.090817	0.780000	10000	1339.301675	1.000000	
2223.460073	0.780000	10000	1429.668110	1.000000	
2286.878957	0.780000	10000	1527.627476	1.000000	
2347.632870	0.780000	10000	1636.182338	1.000000	
511.676297	0.240000	20000	161.461563	1.000000	
587.892949	0.240000	20000	194.690425	1.000000	
663.849653	0.240000	20000	229.884230	1.000000	
739.531343	0.240000	20000	266.930568	1.000000	
814.913315	0.240000	20000	305.806606	1.000000	
889.965242	0.240000	20000	346.524452	1.000000	
964.654862	0.240000	20000	389.103481	1.000000	
1038.948057	0.240000	20000	433.570053	1.000000	
1112.808884	0.240000	20000	479.957515	1.000000	
1186.199555	0.240000	20000	528.306488	1.000000	
1259.080351	0.240000	20000	578.665469	1.000000	
1331.409455	0.240000	20000	631.091774	1.000000	
1403.142669	0.240000	20000	685.652891	1.000000	
1474.232994	0.240000	20000	742.428326	1.000000	
1544.630020	0.240000	20000	801.512110	1.000000	
1614.279058	0.240000	20000	863.016170	1.000000	
1683.119928	0.240000	20000	927.074883	1.000000	
1751.064270	0.240000	20000	993.915593	1.000000	
1818.012985	0.240000	20000	1063.804545	1.000000	
1883.901145	0.240000	20000	1136.915108	1.000000	
1948.552329	0.240000	20000	1213.774040	1.000000	
2011.823816	0.240000	20000	1294.825873	1.000000	
2073.436454	0.240000	20000	1380.961385	1.000000	
2133.079825	0.240000	20000	1473.212917	1.000000	
2190.162914	0.240000	20000	1573.558199	1.000000	
2243.657031	0.240000	20000	1685.498237	1.000000	
512.753917	0.400000	20000	160.836292	1.000000	
589.151629	0.400000	20000	193.958328	1.000000	
665.294139	0.400000	20000	229.049513	1.000000	
741.168013	0.400000	20000	265.986988	1.000000	
816.748207	0.400000	20000	304.753503	1.000000	
892.004809	0.400000	20000	345.361576	1.000000	
966.905980	0.400000	20000	387.830985	1.000000	
1041.418028	0.400000	20000	432.188479	1.000000	
1115.505436	0.400000	20000	478.467771	1.000000	
1189.130841	0.400000	20000	526.709821	1.000000	
1262.254950	0.400000	20000	576.963430	1.000000	
1334.836374	0.400000	20000	629.286180	1.000000	
1406.831353	0.400000	20000	683.745770	1.000000	
1478.193339	0.400000	20000	740.421867	1.000000	
1548.872403	0.400000	20000	799.408602	1.000000	
1618.814382	0.400000	20000	860.817931	1.000000	
1687.959691	0.400000	20000	924.784181	1.000000	
1756.226342	0.400000	20000	991.517843	1.000000	
1823.506006	0.400000	20000	1061.317231	1.000000	
1889.739451	0.400000	20000	1134.339516	1.000000	
1954.759906	0.400000	20000	1211.088126	1.000000	
2018.412460	0.400000	20000	1292.049862	1.000000	
2080.438441	0.400000	20000	1378.062518	1.000000	
2140.525854	0.400000	20000	1470.174550	1.000000	
2198.094743	0.400000	20000	1570.352308	1.000000	
2252.136418	0.400000	20000	1682.075820	1.000000	
514.779092	0.600000	20000	159.566246	1.000000	
591.517649	0.600000	20000	192.470932	1.000000	
668.010182	0.600000	20000	227.353148	1.000000	
744.246417	0.600000	20000	264.068741	1.000000	
820.200698	0.600000	20000	302.611795	1.000000	
895.843946	0.600000	20000	342.995635	1.000000	
971.145174	0.600000	20000	385.240834	1.000000	
1046.071547	0.600000	20000	429.374911	1.000000	
1120.588409	0.600000	20000	475.432309	1.000000	
1194.658182	0.600000	20000	523.459148	1.000000	
1268.244954	0.600000	20000	573.494216	1.000000	
1341.307109	0.600000	20000	625.600613	1.000000	
1413.800704	0.600000	20000	679.850454	1.000000	
1485.680820	0.600000	20000	736.320918	1.000000	
1556.898494	0.600000	20000	795.106344	1.000000	
1627.400615	0.600000	20000	856.318757	1.000000	
1697.128782	0.600000	20000	920.092396	1.000000	
1766.013591	0.600000	20000	986.603023	1.000000	
1833.928500	0.600000	20000	1056.215041	1.000000	
1900.825504	0.600000	20000	1129.052272	1.000000	
1966.556897	0.600000	20000	1205.570020	1.000000	
2030.943578	0.600000	20000	1286.342266	1.000000	
2093.767348	0.600000	20000	1372.097477	1.000000	
2154.712934	0.600000	20000	1463.917296	1.000000	
2213.222003	0.600000	20000	1563.744469	1.000000	
2268.324965	0.600000	20000	1675.015447	1.000000	
517.149866	0.780000	20000	157.904760	1.000000	
594.288154	0.780000	20000	190.526705	1.000000	
671.192160	0.780000	20000	225.132213	1.000000	
747.854642	0.780000	20000	261.556064	1.000000	
824.249551	0.780000	20000	299.804841	1.000000	
900.348881	0.780000	20000	339.892873	1.000000	
976.122742	0.780000	20000	381.841727	1.000000	
1051.539411	0.780000	20000	425.679887	1.000000	
1126.562138	0.780000	20000	471.457528	1.000000	
1201.158107	0.780000	20000	519.203450	1.000000	
1275.294102	0.780000	20000	568.950954	1.000000	
1348.931435	0.780000	20000	620.758372	1.000000	
1422.024210	0.780000	20000	674.712113	1.000000	
1494.524257	0.780000	20000	730.905883	1.000000	
1566.387598	0.780000	20000	789.419604	1.000000	
1637.562478	0.780000	20000	850.365406	1.000000	
1707.992010	0.780000	20000	913.877425	1.000000	
1777.612647	0.780000	20000	980.117922	1.000000	
1846.304855	0.780000	20000	1049.440904	1.000000	
1914.004894	0.780000	20000	1122.024406	1.000000	
1980.598932	0.780000	20000	1198.226387	1.000000	
2045.877373	0.780000	20000	1278.737521	1.000000	
2109.672860	0.780000	20000	1364.139827	1.000000	
2171.665791	0.780000	20000	1455.559267	1.000000	
2231.301058	0.780000	20000	1554.988616	1.000000	
2287.728447	0.780000	20000	1665.559617	1.000000	
502.957016	0.240000	30000	164.721387	1.000000	
577.708595	0.240000	30000	198.505124	1.000000	
652.159840	0.240000	30000	234.230985	1.000000	
726.285231	0.240000	30000	271.840645	1.000000	
800.061347	0.240000	30000	311.282123	1.000000	
873.454248	0.240000	30000	352.565257	1.000000	
946.427943	0.240000	30000	395.707208	1.000000	
1018.944487	0.240000	30000	440.732221	1.000000	
1090.964032	0.240000	30000	487.671660	1.000000	
1162.444810	0.240000	30000	536.564337	1.000000	
1233.343040	0.240000	30000	587.457143	1.000000	
1303.612727	0.240000	30000	640.406035	1.000000	
1373.205342	0.240000	30000	695.477405	1.000000	
1442.069318	0.240000	30000	752.749972	1.000000	
1510.149345	0.240000	30000	812.317312	1.000000	
1577.385357	0.240000	30000	874.291266	1.000000	
1643.711128	0.240000	30000	938.806537	1.000000	
1708.997568	0.240000	30000	1006.175737	1.000000	
1773.194571	0.240000	30000	1076.502966	1.000000	
1836.201195	0.240000	30000	1150.043685	1.000000	
1897.777480	0.240000	30000	1227.442395	1.000000	
1957.840638	0.240000	30000	1308.939400	1.000000	
2015.990813	0.240000	30000	1395.665334	1.000000	
2071.901656	0.240000	30000	1488.598336	1.000000	
2124.893658	0.240000	30000	1589.763751	1.000000	
2173.773737	0.240000	30000	1702.766996	1.000000	
504.099138	0.400000	30000	164.266349	1.000000	
579.041301	0.400000	30000	197.972848	1.000000	
653.687615	0.400000	30000	233.624748	1.000000	
728.014029	0.400000	30000	271.156217	1.000000	
801.996738	0.400000	30000	310.519347	1.000000	
875.602127	0.400000	30000	351.724303	1.000000	
948.794535	0.400000	30000	394.788568	1.000000	
1021.536351	0.400000	30000	439.736691	1.000000	
1093.788059	0.400000	30000	486.600319	1.000000	
1165.508225	0.400000	30000	535.418518	1.000000	
1236.653399	0.400000	30000	586.238407	1.000000	
1307.177926	0.400000	30000	639.116128	1.000000	
1377.033621	0.400000	30000	694.118224	1.000000	
1446.169286	0.400000	30000	751.323517	1.000000	
1514.530006	0.400000	30000	810.825639	1.000000	
1582.056158	0.400000	30000	872.736436	1.000000	
1648.682028	0.400000	30000	937.190557	1.000000	
1714.283934	0.400000	30000	1004.488975	1.000000	
1778.804013	0.400000	30000	1074.757908	1.000000	
1842.146212	0.400000	30000	1148.241599	1.000000	
1904.078778	0.400000	30000	1225.568503	1.000000	
1964.512251	0.400000	30000	1306.998868	1.000000	
2023.054158	0.400000	30000	1393.654323	1.000000	
2079.387300	0.400000	30000	1486.496755	1.000000	
2132.838859	0.400000	30000	1587.552977	1.000000	
2182.233898	0.400000	30000	1700.414328	1.000000	
506.264889	0.600000	30000	163.333473	1.000000	
581.568999	0.600000	30000	196.881400	1.000000	
656.585983	0.600000	30000	232.381352	1.000000	
731.294699	0.600000	30000	269.752063	1.000000	
805.670611	0.600000	30000	308.953968	1.000000	
879.680769	0.600000	30000	349.997897	1.000000	
953.290187	0.600000	30000	392.901976	1.000000	
1026.461929	0.600000	30000	437.691371	1.000000	
1099.157159	0.600000	30000	484.398301	1.000000	
1171.335117	0.600000	30000	533.062357	1.000000	
1242.953030	0.600000	30000	583.731116	1.000000	
1313.965927	0.600000	30000	636.461109	1.000000	
1384.326324	0.600000	30000	691.319188	1.000000	
1453.983757	0.600000	30000	748.384395	1.000000	
1522.884105	0.600000	30000	807.750486	1.000000	
1590.968627	0.600000	30000	869.529324	1.000000	
1658.172621	0.600000	30000	933.855457	1.000000	
1724.383215	0.600000	30000	1001.005729	1.000000	
1789.526979	0.600000	30000	1071.152228	1.000000	
1853.517603	0.600000	30000	1144.515953	1.000000	
1916.139720	0.600000	30000	1221.692071	1.000000	
1977.283669	0.600000	30000	1303.001150	1.000000	
2036.591743	0.600000	30000	1389.489282	1.000000	
2093.744733	0.600000	30000	1482.141449	1.000000	
2148.089502	0.600000	30000	1582.968492	1.000000	
2198.486721	0.600000	30000	1695.532387	1.000000	
508.834539	0.780000	30000	162.095919	1.000000	
584.569070	0.780000	30000	195.433034	1.000000	
660.027228	0.780000	30000	230.730769	1.000000	
735.191515	0.780000	30000	267.887293	1.000000	
810.036550	0.780000	30000	306.874105	1.000000	
884.530251	0.780000	30000	347.702889	1.000000	
958.638517	0.780000	30000	390.392602	1.000000	
1032.325304	0.780000	30000	434.969206	1.000000	
1105.552664	0.780000	30000	481.465671	1.000000	
1178.280725	0.780000	30000	529.922270	1.000000	
1250.467603	0.780000	30000	580.387191	1.000000	
1322.069219	0.780000	30000	632.917482	1.000000	
1393.039005	0.780000	30000	687.580415	1.000000	
1463.327452	0.780000	30000	744.455335	1.000000	
1532.881459	0.780000	30000	803.636176	1.000000	
1601.643411	0.780000	30000	865.234839	1.000000	
1669.549893	0.780000	30000	929.385756	1.000000	
1736.501854	0.780000	30000	996.333207	1.000000	
1802.405877	0.780000	30000	1066.311214	1.000000	
1867.188071	0.780000	30000	1139.509434	1.000000	
1930.653993	0.780000	30000	1216.478049	1.000000	
1992.667857	0.780000	30000	1297.619146	1.000000	
2052.916372	0.780000	30000	1383.876696	1.000000	
2111.077344	0.780000	30000	1476.266838	1.000000	
2166.522215	0.780000	30000	1576.778682	1.000000	
2218.156123	0.780000	30000	1688.934206	1.000000	
494.838210	0.240000	37500	166.662075	1.000000	
568.230241	0.240000	37500	200.774387	1.000000	
641.285789	0.240000	37500	236.814495	1.000000	
713.971140	0.240000	37500	274.755920	1.000000	
786.263808	0.240000	37500	314.529317	1.000000	
858.126814	0.240000	37500	356.143070	1.000000	
929.521010	0.240000	37500	399.612936	1.000000	
1000.405191	0.240000	37500	444.961834	1.000000	
1070.736161	0.240000	37500	492.219906	1.000000	
1140.468710	0.240000	37500	541.424863	1.000000	
1209.555514	0.240000	37500	592.622646	1.000000	
1277.946903	0.240000	37500	645.868417	1.000000	
1345.590493	0.240000	37500	701.227960	1.000000	
1412.430627	0.240000	37500	758.779578	1.000000	
1478.407563	0.240000	37500	818.616637	1.000000	
1543.456344	0.240000	37500	880.850999	1.000000	
1607.490419	0.240000	37500	945.654534	1.000000	
1670.393760	0.240000	37500	1013.277804	1.000000	
1732.105496	0.240000	37500	1083.843215	1.000000	
1792.487688	0.240000	37500	1157.675514	1.000000	
1851.322999	0.240000	37500	1235.308477	1.000000	
1908.466748	0.240000	37500	1317.117242	1.000000	
1963.537921	0.240000	37500	1404.089646	1.000000	
2016.102707	0.240000	37500	1497.392692	1.000000	
2065.432850	0.240000	37500	1599.004999	1.000000	
2110.191419	0.240000	37500	1712.590248	1.000000	
496.017990	0.400000	37500	166.318889	1.000000	
569.605942	0.400000	37500	200.373198	1.000000	
642.861680	0.400000	37500	236.357880	1.000000	
715.752789	0.400000	37500	274.240842	1.000000	
788.256388	0.400000	37500	313.955813	1.000000	
860.335763	0.400000	37500	355.511437	1.000000	
931.952032	0.400000	37500	398.923724	1.000000	
1003.064262	0.400000	37500	444.215833	1.000000	
1073.629527	0.400000	37500	491.418120	1.000000	
1143.602892	0.400000	37500	540.568495	1.000000	
1212.937308	0.400000	37500	591.713063	1.000000	
1281.583389	0.400000	37500	644.907128	1.000000	
1349.489047	0.400000	37500	700.216577	1.000000	
1416.598940	0.400000	37500	757.719782	1.000000	
1482.853678	0.400000	37500	817.510143	1.000000	
1548.188700	0.400000	37500	879.699514	1.000000	
1612.521220	0.400000	37500	944.451760	1.000000	
1675.729973	0.400000	37500	1012.032813	1.000000	
1737.757460	0.400000	37500	1082.557332	1.000000	
1798.471121	0.400000	37500	1156.339343	1.000000	
1857.647414	0.400000	37500	1233.932379	1.000000	
1915.152450	0.400000	37500	1315.687616	1.000000	
1970.598576	0.400000	37500	1402.617938	1.000000	
2023.568965	0.400000	37500	1495.857442	1.000000	
2073.338912	0.400000	37500	1597.392916	1.000000	
2118.588323	0.400000	37500	1710.877946	1.000000	
498.268861	0.600000	37500	165.611040	1.000000	
572.231099	0.600000	37500	199.545575	1.000000	
645.869454	0.600000	37500	235.415736	1.000000	
719.154106	0.600000	37500	273.177834	1.000000	
792.061418	0.600000	37500	312.771926	1.000000	
864.555214	0.600000	37500	354.207194	1.000000	
936.597160	0.600000	37500	397.500162	1.000000	
1008.146877	0.600000	37500	442.674473	1.000000	
1079.161993	0.600000	37500	489.760934	1.000000	
1149.598130	0.600000	37500	538.797853	1.000000	
1219.408796	0.600000	37500	589.831686	1.000000	
1288.545179	0.600000	37500	642.918021	1.000000	
1356.955785	0.600000	37500	698.122967	1.000000	
1424.585907	0.600000	37500	755.525046	1.000000	
1491.376848	0.600000	37500	815.217732	1.000000	
1557.264836	0.600000	37500	877.312866	1.000000	
1622.174669	0.600000	37500	941.957668	1.000000	
1685.974448	0.600000	37500	1009.450047	1.000000	
1748.613450	0.600000	37500	1079.888561	1.000000	
1809.969948	0.600000	37500	1153.564916	1.000000	
1869.807689	0.600000	37500	1231.073778	1.000000	
1928.014554	0.600000	37500	1312.716441	1.000000	
1984.189163	0.600000	37500	1399.557937	1.000000	
2037.948796	0.600000	37500	1492.663818	1.000000	
2088.575376	0.600000	37500	1594.037854	1.000000	
2134.781884	0.600000	37500	1707.312527	1.000000	
500.964411	0.780000	37500	164.663240	1.000000	
575.375775	0.780000	37500	198.437112	1.000000	
649.473573	0.780000	37500	234.153527	1.000000	
723.231307	0.780000	37500	271.753204	1.000000	
796.624425	0.780000	37500	311.184682	1.000000	
869.617468	0.780000	37500	352.457840	1.000000	
942.172828	0.780000	37500	395.589880	1.000000	
1014.250857	0.780000	37500	440.605087	1.000000	
1085.809915	0.780000	37500	487.534862	1.000000	
1156.806354	0.780000	37500	536.418047	1.000000	
1227.194420	0.780000	37500	587.301566	1.000000	
1296.926045	0.780000	37500	640.241396	1.000000	
1365.950507	0.780000	37500	695.303950	1.000000	
1434.213915	0.780000	37500	752.567959	1.000000	
1501.658462	0.780000	37500	812.127007	1.000000	
1568.221374	0.780000	37500	874.092934	1.000000	
1633.833442	0.780000	37500	938.600439	1.000000	
1698.360356	0.780000	37500	1005.960648	1.000000	
1761.748655	0.780000	37500	1076.280480	1.000000	
1823.893409	0.780000	37500	1149.813966	1.000000	
1884.544702	0.780000	37500	1227.203563	1.000000	
1943.615507	0.780000	37500	1308.690886	1.000000	
2000.687126	0.780000	37500	1395.409114	1.000000	
2055.420819	0.780000	37500	1488.330624	1.000000	
2107.106200	0.780000	37500	1589.482180	1.000000	
2154.497665	0.780000	37500	1702.467409	1.000000	
